                         Program Version 5.0.3 -  RELEASE  -
|  1> !optTS verytightscf verytightopt r2scan-3c
|  2> %MaxCore 1000
|  3> %pal nprocs 8 end
|  4> %geom
|  5> 	MaxIter 9
|  6> 	GDIISMaxEq 17
|  7> 	Calc_Hess true
|  8> 	Recalc_Hess 5
|  9> 	Trust 0.15
| 10> 	modify_internal  {B 0 1 A} {B 0 5 A}  end
| 11> end
| 12> %Freq
| 13> end
| 14> * xyzfile -1 1 run.copt.r2scan-3c.xyz
| 15>
| 16>                          ****END OF INPUT****
 Total Charge           Charge          ....   -1
 Multiplicity           Mult            ....    1
 Number of Electrons    NEL             ....   54
Dispersion correction           -0.000852458
FINAL SINGLE POINT ENERGY     -2713.899349987342
Dispersion correction            ... Starting D4
Dispersion correction in the Hessian             ... Starting D4

VIBRATIONAL FREQUENCIES
-----------------------

Scaling factor for frequencies =  1.000000000  (already applied!)

   0:         0.00 cm**-1
   1:         0.00 cm**-1
   2:         0.00 cm**-1
   3:         0.00 cm**-1
   4:         0.00 cm**-1
   5:         0.00 cm**-1
   6:      -151.32 cm**-1 ***imaginary mode***
   7:       194.84 cm**-1
   8:       215.93 cm**-1
   9:       415.16 cm**-1
  10:       675.08 cm**-1
  11:       932.31 cm**-1
  12:      1194.96 cm**-1
  13:      1421.65 cm**-1
  14:      1446.38 cm**-1
  15:      2955.06 cm**-1
  16:      3157.61 cm**-1
  17:      3222.89 cm**-1

IR SPECTRUM
-----------

 Mode   freq       eps      Int      T**2         TX        TY        TZ
       cm**-1   L/(mol*cm) km/mol    a.u.
----------------------------------------------------------------------------
  7:    194.84   0.000549    2.77  0.000879  ( 0.000692  0.010314 -0.027782)
  8:    215.93   0.014030   70.90  0.020276  ( 0.140019 -0.023588 -0.010669)
  9:    415.16   0.054604  275.94  0.041044  (-0.202558 -0.003278  0.001823)
 10:    675.08   0.017960   90.76  0.008302  (-0.090255  0.011187  0.005569)
 11:    932.31   0.000266    1.35  0.000089  (-0.000047  0.003297 -0.008850)
 12:   1194.96   0.003450   17.44  0.000901  (-0.023983 -0.016996 -0.006085)
 13:   1421.65   0.002655   13.42  0.000583  ( 0.016048 -0.016802 -0.006561)
 14:   1446.38   0.002423   12.24  0.000523  (-0.000335  0.008078 -0.021386)
 15:   2955.06   0.033511  169.35  0.003539  ( 0.055910 -0.018725 -0.007895)
 16:   3157.61   0.007598   38.40  0.000751  (-0.027358 -0.001568 -0.000157)
 17:   3222.89   0.001080    5.46  0.000105  ( 0.000143 -0.003598  0.009573)

--------------------------
THERMOCHEMISTRY AT 298.15K
--------------------------

Temperature         ... 298.15 K
Pressure            ... 1.00 atm
Total Mass          ... 113.93 AMU

Throughout the following assumptions are being made:
  (1) The electronic state is orbitally nondegenerate
  (2) There are no thermally accessible electronically excited states
  (3) Hindered rotations indicated by low frequency modes are not
      treated as such but are treated as vibrations and this may
      cause some error
  (4) All equations used are the standard statistical mechanics
      equations for an ideal gas
  (5) All vibrations are strictly harmonic

freq.     194.84  E(vib)   ...       0.36
freq.     215.93  E(vib)   ...       0.34
freq.     415.16  E(vib)   ...       0.19
freq.     675.08  E(vib)   ...       0.08
freq.     932.31  E(vib)   ...       0.03
freq.    1194.96  E(vib)   ...       0.01
freq.    1421.65  E(vib)   ...       0.00
freq.    1446.38  E(vib)   ...       0.00
freq.    2955.06  E(vib)   ...       0.00
freq.    3157.61  E(vib)   ...       0.00
freq.    3222.89  E(vib)   ...       0.00

------------
INNER ENERGY
------------

The inner energy is: U= E(el) + E(ZPE) + E(vib) + E(rot) + E(trans)
    E(el)   - is the total energy from the electronic structure calculation
              = E(kin-el) + E(nuc-el) + E(el-el) + E(nuc-nuc)
    E(ZPE)  - the the zero temperature vibrational energy from the frequency calculation
    E(vib)  - the the finite temperature correction to E(ZPE) due to population
              of excited vibrational states
    E(rot)  - is the rotational thermal energy
    E(trans)- is the translational thermal energy

Summary of contributions to the inner energy U:
Electronic energy                ...  -2713.89934999 Eh
Zero point energy                ...      0.03606765 Eh      22.63 kcal/mol
Thermal vibrational correction   ...      0.00160093 Eh       1.00 kcal/mol
Thermal rotational correction    ...      0.00141627 Eh       0.89 kcal/mol
Thermal translational correction ...      0.00141627 Eh       0.89 kcal/mol
-----------------------------------------------------------------------
Total thermal energy                  -2713.85884887 Eh

Summary of corrections to the electronic energy:
(perhaps to be used in another calculation)
Total thermal correction                  0.00443347 Eh       2.78 kcal/mol
Non-thermal (ZPE) correction              0.03606765 Eh      22.63 kcal/mol
-----------------------------------------------------------------------
Total correction                          0.04050112 Eh      25.41 kcal/mol

--------
ENTHALPY
--------

The enthalpy is H = U + kB*T
                kB is Boltzmann's constant
Total free energy                 ...  -2713.85884887 Eh
Thermal Enthalpy correction       ...      0.00094421 Eh       0.59 kcal/mol
-----------------------------------------------------------------------
Total Enthalpy                    ...  -2713.85790466 Eh

Note: Only C1 symmetry has been detected, increase convergence thresholds
      if your molecule has a higher symmetry. Symmetry factor of 1.0 is
      used for the rotational entropy correction.

Note: Rotational entropy computed according to Herzberg
Infrared and Raman Spectra, Chapter V,1, Van Nostrand Reinhold, 1945
Point Group:  C1, Symmetry Number:   1
Rotational constants in cm-1:     2.198769     0.051909     0.051216

Vibrational entropy computed according to the QRRHO of S. Grimme
Chem.Eur.J. 2012 18 9955

-------
ENTROPY
-------

The entropy contributions are T*S = T*(S(el)+S(vib)+S(rot)+S(trans))
     S(el)   - electronic entropy
     S(vib)  - vibrational entropy
     S(rot)  - rotational entropy
     S(trans)- translational entropy
The entropies will be listed as multiplied by the temperature to get
units of energy

Electronic entropy                ...      0.00000000 Eh      0.00 kcal/mol
Vibrational entropy               ...      0.00267182 Eh      1.68 kcal/mol
Rotational entropy                ...      0.01193833 Eh      7.49 kcal/mol
Translational entropy             ...      0.01905598 Eh     11.96 kcal/mol
-----------------------------------------------------------------------
Final entropy term                ...      0.03366613 Eh     21.13 kcal/mol

In case the symmetry of your molecule has not been determined correctly
or in case you have a reason to use a different symmetry number we print
out the resulting rotational entropy values for sn=1,12 :
 --------------------------------------------------------
|  sn= 1 | S(rot)=       0.01193833 Eh      7.49 kcal/mol|
|  sn= 2 | S(rot)=       0.01128388 Eh      7.08 kcal/mol|
|  sn= 3 | S(rot)=       0.01090104 Eh      6.84 kcal/mol|
|  sn= 4 | S(rot)=       0.01062942 Eh      6.67 kcal/mol|
|  sn= 5 | S(rot)=       0.01041873 Eh      6.54 kcal/mol|
|  sn= 6 | S(rot)=       0.01024659 Eh      6.43 kcal/mol|
|  sn= 7 | S(rot)=       0.01010104 Eh      6.34 kcal/mol|
|  sn= 8 | S(rot)=       0.00997496 Eh      6.26 kcal/mol|
|  sn= 9 | S(rot)=       0.00986376 Eh      6.19 kcal/mol|
|  sn=10 | S(rot)=       0.00976428 Eh      6.13 kcal/mol|
|  sn=11 | S(rot)=       0.00967429 Eh      6.07 kcal/mol|
|  sn=12 | S(rot)=       0.00959213 Eh      6.02 kcal/mol|
 --------------------------------------------------------

-------------------
GIBBS FREE ENERGY
-------------------

The Gibbs free energy is G = H - T*S

Total enthalpy                    ...  -2713.85790466 Eh
Total entropy correction          ...     -0.03366613 Eh    -21.13 kcal/mol
-----------------------------------------------------------------------
Final Gibbs free energy         ...  -2713.89157079 Eh

For completeness - the Gibbs free energy minus the electronic energy
G-E(el)                           ...      0.00777920 Eh      4.88 kcal/mol

                    ***********************HURRAY********************

CARTESIAN COORDINATES (ANGSTROEM)
---------------------------------
  C     -1.840571   -0.579774   -0.041784
  Br     0.195051   -0.163047    0.083173
  H     -1.957650   -1.450573    0.597303
  H     -1.983285   -0.819728   -1.091784
  H     -2.493468    0.249567    0.277863
  F     -4.238676    0.128425    0.259138

 Multiplicity           Mult            ....    1
 Number of Electrons    NEL             ....   54
 Basis Dimension        Dim             ....   94

ORBITAL ENERGIES
----------------

  NO   OCC          E(Eh)            E(eV)
   0   2.0000    -482.052223    -13117.3079
   1   2.0000     -62.124375     -1690.4902
   2   2.0000     -55.905299     -1521.2605
   3   2.0000     -55.901975     -1521.1701
   4   2.0000     -55.901931     -1521.1689
   5   2.0000     -24.080838      -655.2729
   6   2.0000      -9.902928      -269.4724
   7   2.0000      -8.455908      -230.0970
   8   2.0000      -6.261488      -170.3838
   9   2.0000      -6.250668      -170.0893
  10   2.0000      -6.250640      -170.0886
  11   2.0000      -2.359419       -64.2030
  12   2.0000      -2.356897       -64.1344
  13   2.0000      -2.356847       -64.1331
  14   2.0000      -2.348666       -63.9105
  15   2.0000      -2.348662       -63.9103
  16   2.0000      -0.712813       -19.3966
  17   2.0000      -0.579835       -15.7781
  18   2.0000      -0.462341       -12.5809
  19   2.0000      -0.232124        -6.3164
  20   2.0000      -0.214276        -5.8307
  21   2.0000      -0.180138        -4.9018
  22   2.0000      -0.099184        -2.6989
  23   2.0000      -0.099117        -2.6971
  24   2.0000       0.003064         0.0834
  25   2.0000       0.005565         0.1514
  26   2.0000       0.006591         0.1793
  27   0.0000       0.122503         3.3335
  28   0.0000       0.267828         7.2880
  29   0.0000       0.336204         9.1486
  30   0.0000       0.338083         9.1997
  31   0.0000       0.365790         9.9537

MULLIKEN ATOMIC CHARGES
-----------------------
   0 C :   -0.338206
   1 Br:   -0.409484
   2 H :    0.141835
   3 H :    0.141845
   4 H :    0.269696
   5 F :   -0.805685
Sum of atomic charges:   -1.0000000

LOEWDIN ATOMIC CHARGES
----------------------
   0 C :   -0.486548
   1 Br:   -0.180449
   2 H :    0.143145
   3 H :    0.143148
   4 H :    0.211702
   5 F :   -0.830999

  Mayer bond orders larger than 0.100000
B(  0-C ,  1-Br) :   0.7546 B(  0-C ,  2-H ) :   0.9670 B(  0-C ,  3-H ) :   0.9670
B(  0-C ,  4-H ) :   0.8726 B(  0-C ,  5-F ) :   0.1749

Dispersion correction           -0.000852459
FINAL SINGLE POINT ENERGY     -2713.899349987430

DIPOLE MOMENT
-------------
                                X             Y             Z
Electronic contribution:     13.70151       1.22106       0.24908
Nuclear contribution   :     -9.99305      -1.77265      -0.51126
                        -----------------------------------------
Total Dipole Moment    :      3.70846      -0.55159      -0.26218
                        -----------------------------------------
Magnitude (a.u.)       :      3.75841
Magnitude (Debye)      :      9.55313

Rotational constants in cm-1:     2.198754     0.051909     0.051216
Rotational constants in MHz : 65916.987153  1556.178950  1535.426857

                             ****ORCA TERMINATED NORMALLY****
TOTAL RUN TIME: 0 days 0 hours 0 minutes 9 seconds 479 msec
