                         Program Version 5.0.3 -  RELEASE  -
|  1> !opt verytightscf verytightopt r2scan-3c
|  2> %MaxCore 1000
|  3> %pal nprocs 8 end
|  4> %geom
|  5> 	MaxIter 20
|  6> 	Trust 0.3
|  7> 	Constraints {B 0 5 C}  end
|  8> end
|  9> %Freq
| 10> end
| 11> * xyzfile -1 1 start.xyz
| 12>
| 13>                          ****END OF INPUT****
 Total Charge           Charge          ....   -1
 Multiplicity           Mult            ....    1
 Number of Electrons    NEL             ....   54
Dispersion correction           -0.000852459
FINAL SINGLE POINT ENERGY     -2713.899349987330
Dispersion correction            ... Starting D4
                    ***********************HURRAY********************

CARTESIAN COORDINATES (ANGSTROEM)
---------------------------------
  C     -1.840571   -0.579773   -0.041784
  Br     0.195051   -0.163049    0.083173
  H     -1.957651   -1.450572    0.597304
  H     -1.983286   -0.819727   -1.091784
  H     -2.493466    0.249569    0.277863
  F     -4.238677    0.128422    0.259138

 Multiplicity           Mult            ....    1
 Number of Electrons    NEL             ....   54
 Basis Dimension        Dim             ....   94

ORBITAL ENERGIES
----------------

  NO   OCC          E(Eh)            E(eV)
   0   2.0000    -482.052223    -13117.3079
   1   2.0000     -62.124375     -1690.4902
   2   2.0000     -55.905299     -1521.2605
   3   2.0000     -55.901975     -1521.1701
   4   2.0000     -55.901931     -1521.1689
   5   2.0000     -24.080838      -655.2729
   6   2.0000      -9.902928      -269.4724
   7   2.0000      -8.455908      -230.0970
   8   2.0000      -6.261488      -170.3838
   9   2.0000      -6.250668      -170.0893
  10   2.0000      -6.250640      -170.0886
  11   2.0000      -2.359419       -64.2031
  12   2.0000      -2.356897       -64.1344
  13   2.0000      -2.356847       -64.1331
  14   2.0000      -2.348666       -63.9105
  15   2.0000      -2.348662       -63.9103
  16   2.0000      -0.712813       -19.3966
  17   2.0000      -0.579835       -15.7781
  18   2.0000      -0.462341       -12.5809
  19   2.0000      -0.232124        -6.3164
  20   2.0000      -0.214276        -5.8308
  21   2.0000      -0.180138        -4.9018
  22   2.0000      -0.099184        -2.6989
  23   2.0000      -0.099117        -2.6971
  24   2.0000       0.003064         0.0834
  25   2.0000       0.005565         0.1514
  26   2.0000       0.006591         0.1793
  27   0.0000       0.122503         3.3335
  28   0.0000       0.267828         7.2880
  29   0.0000       0.336204         9.1486
  30   0.0000       0.338083         9.1997
  31   0.0000       0.365790         9.9537

MULLIKEN ATOMIC CHARGES
-----------------------
   0 C :   -0.338206
   1 Br:   -0.409484
   2 H :    0.141835
   3 H :    0.141845
   4 H :    0.269696
   5 F :   -0.805685
Sum of atomic charges:   -1.0000000

LOEWDIN ATOMIC CHARGES
----------------------
   0 C :   -0.486548
   1 Br:   -0.180449
   2 H :    0.143146
   3 H :    0.143148
   4 H :    0.211702
   5 F :   -0.830999

  Mayer bond orders larger than 0.100000
B(  0-C ,  1-Br) :   0.7546 B(  0-C ,  2-H ) :   0.9670 B(  0-C ,  3-H ) :   0.9670
B(  0-C ,  4-H ) :   0.8726 B(  0-C ,  5-F ) :   0.1749

Dispersion correction           -0.000852458
FINAL SINGLE POINT ENERGY     -2713.899349987405

DIPOLE MOMENT
-------------
                                X             Y             Z
Electronic contribution:     13.70151       1.22106       0.24908
Nuclear contribution   :     -9.99305      -1.77264      -0.51126
                        -----------------------------------------
Total Dipole Moment    :      3.70846      -0.55158      -0.26218
                        -----------------------------------------
Magnitude (a.u.)       :      3.75842
Magnitude (Debye)      :      9.55313

Rotational constants in cm-1:     2.198769     0.051909     0.051216
Rotational constants in MHz : 65917.425087  1556.177903  1535.426076

                             ****ORCA TERMINATED NORMALLY****
TOTAL RUN TIME: 0 days 0 hours 0 minutes 2 seconds 860 msec
